{{chembox
| Watchedfields = changed
| verifiedrevid = 477184191
| Reference =<ref>''[[Merck Index]]'', 11th Edition, '''7929'''</ref>
| Name = 1,2,4-Trimethylbenzene
| ImageFileL1 = 1,2,4-Trimethylbenzene.svg
| ImageNameL1 = Skeletal formula
| ImageFileR1 = 1,2,4-Trimethylbenzene-3D-balls.png
| ImageNameR1 = Ball-and-stick model
| ImageName = 1,2,4-Trimethylbenzene
| IUPACName = 1,2,4-Trimethylbenzene
| OtherNames = Pseudocumene,<br />Asymmetrical trimethylbenzene,<br />psi-cumene
|Section1={{Chembox Identifiers
| ChemSpiderID_Ref = {{chemspidercite|correct|chemspider}}
| ChEBI_Ref = {{ebicite|correct|EBI}}
| ChEBI = 34039
| ChemSpiderID = 6977
| KEGG_Ref = {{keggcite|correct|kegg}}
| KEGG = C14533
| InChI = 1/C9H12/c1-7-4-5-8(2)9(3)6-7/h4-6H,1-3H3
| InChIKey = GWHJZXXIDMPWGX-UHFFFAOYAF
| StdInChI_Ref = {{stdinchicite|correct|chemspider}}
| StdInChI = 1S/C9H12/c1-7-4-5-8(2)9(3)6-7/h4-6H,1-3H3
| StdInChIKey_Ref = {{stdinchicite|correct|chemspider}}
| StdInChIKey = GWHJZXXIDMPWGX-UHFFFAOYSA-N
| CASNo_Ref = {{cascite|correct|CAS}}
| CASNo = 95-63-6
| UNII_Ref = {{fdacite|correct|FDA}}
| UNII = 34X0W8052F
| SMILES = c1c(ccc(c1C)C)C
}}
|Section2={{Chembox Properties
| Formula = C{{sub|9}}H{{sub|12}}
| MolarMass = 120.19 g/mol
| Density = 0.8761 g/cm{{sup|3}}
| Appearance = Colorless liquid
| MeltingPtC = -43.78
| MeltingPt_notes = 
| BoilingPtC = 169 to 171
| BoilingPt_notes = 
| MagSus = -101.6·10{{sup|−6}} cm{{sup|3}}/mol
  }}
|Section3={{Chembox Hazards
| EUClass = Harmful (Xn); Dangerous for the environment (N)
| FlashPtC = 44.4
| ExternalSDS = [http://www.sigmaaldrich.com/catalog/product/aldrich/t73601?lang=en&region=US Sigma-Aldrich MSDS]
| PEL = none<ref name=PGCH>{{PGCH|0638}}</ref>
| ExploLimits = 0.9%–6.4%<ref name=PGCH/>
  }}
}}
'''1,2,4-Trimethylbenzene''', also known as '''pseudocumene''', is an [[organic compound]] with the chemical formula C{{sub|6}}H{{sub|3}}(CH{{sub|3}}){{sub|3}}.  Classified as an [[aromatic hydrocarbon]], it is a flammable colorless liquid with a strong odor. It is nearly insoluble in water but soluble in organic solvents. It occurs naturally in [[coal tar]] and [[petroleum]] (about 3%). It is one of the three [[Isomer|isomers]] of [[trimethylbenzene]].

==Production==
Industrially, it is isolated from the C{{sub|9}} [[aromatic hydrocarbon]] fraction during [[petroleum distillation]]. Approximately 40% of this fraction is 1,2,4-trimethylbenzene. It is also generated by methylation of toluene and xylenes and the [[disproportionation]] of xylene over aluminosilicate catalysts.<ref name=Ullmanns>Karl Griesbaum, Arno Behr, Dieter Biedenkapp, Heinz-Werner Voges, Dorothea Garbe, Christian Paetz, Gerd Collin, Dieter Mayer, Hartmut Höke "Hydrocarbons" in Ullmann's Encyclopedia of Industrial Chemistry 2002 Wiley-VCH, Weinheim. {{DOI|10.1002/14356007.a13_227}}</ref>

==Uses==
Pseudocumene is a precursor to [[mellitic anhydride]], from which high performance polymers are made. It is also used as a sterilizing agent and in the making of dyes, perfumes and resins. Another use is as a [[gasoline additive]].<ref>{{cite web|accessdate =2008-01-28| format =text| publisher=[[United States Environmental Protection Agency]]| date =1994-08-01| url =http://www.epa.gov/chemfact/s_trimet.txt| title =Chemical Summary for 1,2,4-Trimethylbenzene}}</ref>

===Scintillator===
1,2,4-Trimethylbenzene dissolved in [[mineral oil]] is used as a liquid [[scintillator]]<ref name="NIMA.799.1">{{cite journal |display-authors=etal| title=Liquid scintillator production for the NOvA experiment |journal=Nuclear Instruments and Methods A | volume=799 | pages=1–9| url=|date=November 1, 2015 |last=Mufson |first=S.|doi=10.1016/j.nima.2015.07.026|arxiv=1504.04035| bibcode=2015NIMPA.799....1M| s2cid=118578183 }}</ref> in particle physics experiments such as [[NOνA]] and [[Borexino]].

==See also==
* [[Cumene]]

==References==
{{reflist}}

==External links==
* [https://cfpub.epa.gov/ncea/iris2/chemicalLanding.cfm?substance_nmbr=1037 EPA Chemical Fact Sheet]
* [https://www.cdc.gov/niosh/npg/npgd0638.html CDC – NIOSH Pocket Guide to Chemical Hazards]

{{Hydrocarbons}}

{{DEFAULTSORT:Trimethylbenzene, 1, 2, 4-}}
[[Category:Alkylbenzenes]]